# LAMMPS data file written by Ovito 3.0.0-dev564
1200 atoms
2 atom types
-12.19363768 18.29045652 xlo xhi
-8.62220389 25.86661167 ylo yhi
-9.95606348 14.93409522 zlo zhi

Atoms  # atomic

1 1 -12.193638 -4.311102 -7.467048
2 1 -10.669435 -2.874068 -9.956063
3 1 -12.193638 -8.622204 -9.956063
4 2 -10.669435 -7.185170 -7.467048
5 1 -10.669431 -1.437034 -7.467048
6 1 -10.669431 -5.748136 -9.956063
7 1 -9.145228 -4.311102 -7.467048
8 1 -7.621025 -2.874068 -9.956063
9 1 -9.145228 -8.622204 -9.956063
10 1 -7.621025 -7.185170 -7.467048
11 1 -7.621022 -1.437034 -7.467048
12 1 -7.621022 -5.748136 -9.956063
13 1 -12.193638 -4.311102 -2.489016
14 1 -10.669435 -2.874068 -4.978032
15 1 -12.193638 -8.622204 -4.978032
16 1 -10.669435 -7.185170 -2.489016
17 1 -10.669431 -1.437034 -2.489016
18 1 -10.669431 -5.748136 -4.978032
19 1 -9.145228 -4.311102 -2.489016
20 1 -7.621025 -2.874068 -4.978032
21 1 -9.145228 -8.622204 -4.978032
22 2 -7.621025 -7.185170 -2.489016
23 1 -7.621022 -1.437034 -2.489016
24 1 -7.621022 -5.748136 -4.978032
25 1 -12.193638 -4.311102 2.489016
26 1 -10.669435 -2.874068 0.000000
27 2 -12.193638 -8.622204 0.000000
28 1 -10.669435 -7.185170 2.489016
29 1 -10.669431 -1.437034 2.489016
30 1 -10.669431 -5.748136 0.000000
31 2 -9.145228 -4.311102 2.489016
32 1 -7.621025 -2.874068 0.000000
33 1 -9.145228 -8.622204 0.000000
34 1 -7.621025 -7.185170 2.489016
35 1 -7.621022 -1.437034 2.489016
36 1 -7.621022 -5.748136 0.000000
37 1 -12.193638 -4.311102 7.467048
38 1 -10.669435 -2.874068 4.978032
39 1 -12.193638 -8.622204 4.978032
40 1 -10.669435 -7.185170 7.467048
41 2 -10.669431 -1.437034 7.467048
42 1 -10.669431 -5.748136 4.978032
43 1 -9.145228 -4.311102 7.467048
44 1 -7.621025 -2.874068 4.978032
45 1 -9.145228 -8.622204 4.978032
46 1 -7.621025 -7.185170 7.467048
47 1 -7.621022 -1.437034 7.467048
48 2 -7.621022 -5.748136 4.978032
49 2 -12.193638 -4.311102 12.445079
50 1 -10.669435 -2.874068 9.956063
51 1 -12.193638 -8.622204 9.956063
52 1 -10.669435 -7.185170 12.445079
53 1 -10.669431 -1.437034 12.445079
54 1 -10.669431 -5.748136 9.956063
55 2 -9.145228 -4.311102 12.445079
56 1 -7.621025 -2.874068 9.956063
57 1 -9.145228 -8.622204 9.956063
58 1 -7.621025 -7.185170 12.445079
59 1 -7.621022 -1.437034 12.445079
60 1 -7.621022 -5.748136 9.956063
61 1 -12.193638 4.311102 -7.467048
62 1 -10.669435 5.748136 -9.956063
63 1 -12.193638 0.000000 -9.956063
64 1 -10.669435 1.437034 -7.467048
65 1 -10.669431 7.185170 -7.467048
66 1 -10.669431 2.874068 -9.956063
67 1 -9.145228 4.311102 -7.467048
68 1 -7.621025 5.748136 -9.956063
69 1 -9.145228 0.000000 -9.956063
70 1 -7.621025 1.437034 -7.467048
71 1 -7.621022 7.185170 -7.467048
72 1 -7.621022 2.874068 -9.956063
73 1 -12.193638 4.311102 -2.489016
74 1 -10.669435 5.748136 -4.978032
75 1 -12.193638 0.000000 -4.978032
76 1 -10.669435 1.437034 -2.489016
77 1 -10.669431 7.185170 -2.489016
78 1 -10.669431 2.874068 -4.978032
79 1 -9.145228 4.311102 -2.489016
80 1 -7.621025 5.748136 -4.978032
81 1 -9.145228 0.000000 -4.978032
82 1 -7.621025 1.437034 -2.489016
83 1 -7.621022 7.185170 -2.489016
84 1 -7.621022 2.874068 -4.978032
85 1 -12.193638 4.311102 2.489016
86 1 -10.669435 5.748136 0.000000
87 1 -12.193638 0.000000 0.000000
88 2 -10.669435 1.437034 2.489016
89 1 -10.669431 7.185170 2.489016
90 2 -10.669431 2.874068 0.000000
91 1 -9.145228 4.311102 2.489016
92 1 -7.621025 5.748136 0.000000
93 1 -9.145228 0.000000 0.000000
94 1 -7.621025 1.437034 2.489016
95 1 -7.621022 7.185170 2.489016
96 1 -7.621022 2.874068 0.000000
97 1 -12.193638 4.311102 7.467048
98 1 -10.669435 5.748136 4.978032
99 2 -12.193638 0.000000 4.978032
100 1 -10.669435 1.437034 7.467048
101 1 -10.669431 7.185170 7.467048
102 1 -10.669431 2.874068 4.978032
103 1 -9.145228 4.311102 7.467048
104 1 -7.621025 5.748136 4.978032
105 1 -9.145228 0.000000 4.978032
106 1 -7.621025 1.437034 7.467048
107 1 -7.621022 7.185170 7.467048
108 1 -7.621022 2.874068 4.978032
109 1 -12.193638 4.311102 12.445079
110 1 -10.669435 5.748136 9.956063
111 1 -12.193638 0.000000 9.956063
112 1 -10.669435 1.437034 12.445079
113 1 -10.669431 7.185170 12.445079
114 1 -10.669431 2.874068 9.956063
115 1 -9.145228 4.311102 12.445079
116 1 -7.621025 5.748136 9.956063
117 2 -9.145228 0.000000 9.956063
118 1 -7.621025 1.437034 12.445079
119 1 -7.621022 7.185170 12.445079
120 1 -7.621022 2.874068 9.956063
121 1 -12.193638 12.933306 -7.467048
122 1 -10.669435 14.370340 -9.956063
123 1 -12.193638 8.622204 -9.956063
124 1 -10.669435 10.059238 -7.467048
125 1 -10.669431 15.807374 -7.467048
126 1 -10.669431 11.496272 -9.956063
127 1 -9.145228 12.933306 -7.467048
128 1 -7.621025 14.370340 -9.956063
129 1 -9.145228 8.622204 -9.956063
130 1 -7.621025 10.059238 -7.467048
131 1 -7.621022 15.807374 -7.467048
132 1 -7.621022 11.496272 -9.956063
133 1 -12.193638 12.933306 -2.489016
134 1 -10.669435 14.370340 -4.978032
135 1 -12.193638 8.622204 -4.978032
136 1 -10.669435 10.059238 -2.489016
137 1 -10.669431 15.807374 -2.489016
138 1 -10.669431 11.496272 -4.978032
139 1 -9.145228 12.933306 -2.489016
140 1 -7.621025 14.370340 -4.978032
141 1 -9.145228 8.622204 -4.978032
142 1 -7.621025 10.059238 -2.489016
143 2 -7.621022 15.807374 -2.489016
144 1 -7.621022 11.496272 -4.978032
145 2 -12.193638 12.933306 2.489016
146 1 -10.669435 14.370340 0.000000
147 1 -12.193638 8.622204 0.000000
148 1 -10.669435 10.059238 2.489016
149 1 -10.669431 15.807374 2.489016
150 1 -10.669431 11.496272 0.000000
151 1 -9.145228 12.933306 2.489016
152 1 -7.621025 14.370340 0.000000
153 1 -9.145228 8.622204 0.000000
154 1 -7.621025 10.059238 2.489016
155 1 -7.621022 15.807374 2.489016
156 1 -7.621022 11.496272 0.000000
157 1 -12.193638 12.933306 7.467048
158 1 -10.669435 14.370340 4.978032
159 1 -12.193638 8.622204 4.978032
160 1 -10.669435 10.059238 7.467048
161 1 -10.669431 15.807374 7.467048
162 1 -10.669431 11.496272 4.978032
163 1 -9.145228 12.933306 7.467048
164 1 -7.621025 14.370340 4.978032
165 1 -9.145228 8.622204 4.978032
166 1 -7.621025 10.059238 7.467048
167 1 -7.621022 15.807374 7.467048
168 1 -7.621022 11.496272 4.978032
169 1 -12.193638 12.933306 12.445079
170 1 -10.669435 14.370340 9.956063
171 1 -12.193638 8.622204 9.956063
172 2 -10.669435 10.059238 12.445079
173 1 -10.669431 15.807374 12.445079
174 1 -10.669431 11.496272 9.956063
175 1 -9.145228 12.933306 12.445079
176 1 -7.621025 14.370340 9.956063
177 1 -9.145228 8.622204 9.956063
178 1 -7.621025 10.059238 12.445079
179 1 -7.621022 15.807374 12.445079
180 1 -7.621022 11.496272 9.956063
181 1 -12.193638 21.555510 -7.467048
182 1 -10.669435 22.992544 -9.956063
183 1 -12.193638 17.244408 -9.956063
184 1 -10.669435 18.681442 -7.467048
185 1 -10.669431 24.429578 -7.467048
186 1 -10.669431 20.118476 -9.956063
187 2 -9.145228 21.555510 -7.467048
188 1 -7.621025 22.992544 -9.956063
189 2 -9.145228 17.244408 -9.956063
190 1 -7.621025 18.681442 -7.467048
191 1 -7.621022 24.429578 -7.467048
192 1 -7.621022 20.118476 -9.956063
193 1 -12.193638 21.555510 -2.489016
194 1 -10.669435 22.992544 -4.978032
195 2 -12.193638 17.244408 -4.978032
196 1 -10.669435 18.681442 -2.489016
197 1 -10.669431 24.429578 -2.489016
198 1 -10.669431 20.118476 -4.978032
199 1 -9.145228 21.555510 -2.489016
200 1 -7.621025 22.992544 -4.978032
201 1 -9.145228 17.244408 -4.978032
202 1 -7.621025 18.681442 -2.489016
203 1 -7.621022 24.429578 -2.489016
204 1 -7.621022 20.118476 -4.978032
205 1 -12.193638 21.555510 2.489016
206 1 -10.669435 22.992544 0.000000
207 1 -12.193638 17.244408 0.000000
208 1 -10.669435 18.681442 2.489016
209 1 -10.669431 24.429578 2.489016
210 1 -10.669431 20.118476 0.000000
211 1 -9.145228 21.555510 2.489016
212 1 -7.621025 22.992544 0.000000
213 1 -9.145228 17.244408 0.000000
214 1 -7.621025 18.681442 2.489016
215 1 -7.621022 24.429578 2.489016
216 1 -7.621022 20.118476 0.000000
217 2 -12.193638 21.555510 7.467048
218 1 -10.669435 22.992544 4.978032
219 1 -12.193638 17.244408 4.978032
220 1 -10.669435 18.681442 7.467048
221 1 -10.669431 24.429578 7.467048
222 1 -10.669431 20.118476 4.978032
223 1 -9.145228 21.555510 7.467048
224 1 -7.621025 22.992544 4.978032
225 2 -9.145228 17.244408 4.978032
226 1 -7.621025 18.681442 7.467048
227 1 -7.621022 24.429578 7.467048
228 1 -7.621022 20.118476 4.978032
229 1 -12.193638 21.555510 12.445079
230 1 -10.669435 22.992544 9.956063
231 1 -12.193638 17.244408 9.956063
232 1 -10.669435 18.681442 12.445079
233 1 -10.669431 24.429578 12.445079
234 1 -10.669431 20.118476 9.956063
235 1 -9.145228 21.555510 12.445079
236 1 -7.621025 22.992544 9.956063
237 1 -9.145228 17.244408 9.956063
238 1 -7.621025 18.681442 12.445079
239 1 -7.621022 24.429578 12.445079
240 1 -7.621022 20.118476 9.956063
241 2 -6.096819 -4.311102 -7.467048
242 1 -4.572616 -2.874068 -9.956063
243 2 -6.096819 -8.622204 -9.956063
244 1 -4.572616 -7.185170 -7.467048
245 1 -4.572612 -1.437034 -7.467048
246 1 -4.572612 -5.748136 -9.956063
247 1 -3.048409 -4.311102 -7.467048
248 1 -1.524206 -2.874068 -9.956063
249 1 -3.048409 -8.622204 -9.956063
250 2 -1.524206 -7.185170 -7.467048
251 1 -1.524203 -1.437034 -7.467048
252 1 -1.524203 -5.748136 -9.956063
253 1 -6.096819 -4.311102 -2.489016
254 1 -4.572616 -2.874068 -4.978032
255 1 -6.096819 -8.622204 -4.978032
256 1 -4.572616 -7.185170 -2.489016
257 1 -4.572612 -1.437034 -2.489016
258 1 -4.572612 -5.748136 -4.978032
259 1 -3.048409 -4.311102 -2.489016
260 1 -1.524206 -2.874068 -4.978032
261 1 -3.048409 -8.622204 -4.978032
262 1 -1.524206 -7.185170 -2.489016
263 1 -1.524203 -1.437034 -2.489016
264 1 -1.524203 -5.748136 -4.978032
265 1 -6.096819 -4.311102 2.489016
266 1 -4.572616 -2.874068 0.000000
267 1 -6.096819 -8.622204 0.000000
268 1 -4.572616 -7.185170 2.489016
269 1 -4.572612 -1.437034 2.489016
270 1 -4.572612 -5.748136 0.000000
271 1 -3.048409 -4.311102 2.489016
272 2 -1.524206 -2.874068 0.000000
273 1 -3.048409 -8.622204 0.000000
274 1 -1.524206 -7.185170 2.489016
275 1 -1.524203 -1.437034 2.489016
276 1 -1.524203 -5.748136 0.000000
277 1 -6.096819 -4.311102 7.467048
278 1 -4.572616 -2.874068 4.978032
279 1 -6.096819 -8.622204 4.978032
280 1 -4.572616 -7.185170 7.467048
281 1 -4.572612 -1.437034 7.467048
282 2 -4.572612 -5.748136 4.978032
283 1 -3.048409 -4.311102 7.467048
284 1 -1.524206 -2.874068 4.978032
285 1 -3.048409 -8.622204 4.978032
286 1 -1.524206 -7.185170 7.467048
287 1 -1.524203 -1.437034 7.467048
288 1 -1.524203 -5.748136 4.978032
289 1 -6.096819 -4.311102 12.445079
290 1 -4.572616 -2.874068 9.956063
291 1 -6.096819 -8.622204 9.956063
292 1 -4.572616 -7.185170 12.445079
293 1 -4.572612 -1.437034 12.445079
294 1 -4.572612 -5.748136 9.956063
295 1 -3.048409 -4.311102 12.445079
296 1 -1.524206 -2.874068 9.956063
297 1 -3.048409 -8.622204 9.956063
298 1 -1.524206 -7.185170 12.445079
299 1 -1.524203 -1.437034 12.445079
300 1 -1.524203 -5.748136 9.956063
301 1 -6.096819 4.311102 -7.467048
302 1 -4.572616 5.748136 -9.956063
303 1 -6.096819 0.000000 -9.956063
304 1 -4.572616 1.437034 -7.467048
305 1 -4.572612 7.185170 -7.467048
306 2 -4.572612 2.874068 -9.956063
307 1 -3.048409 4.311102 -7.467048
308 1 -1.524206 5.748136 -9.956063
309 1 -3.048409 0.000000 -9.956063
310 1 -1.524206 1.437034 -7.467048
311 1 -1.524203 7.185170 -7.467048
312 1 -1.524203 2.874068 -9.956063
313 1 -6.096819 4.311102 -2.489016
314 1 -4.572616 5.748136 -4.978032
315 1 -6.096819 0.000000 -4.978032
316 1 -4.572616 1.437034 -2.489016
317 2 -4.572612 7.185170 -2.489016
318 1 -4.572612 2.874068 -4.978032
319 1 -3.048409 4.311102 -2.489016
320 1 -1.524206 5.748136 -4.978032
321 2 -3.048409 0.000000 -4.978032
322 1 -1.524206 1.437034 -2.489016
323 1 -1.524203 7.185170 -2.489016
324 1 -1.524203 2.874068 -4.978032
325 1 -6.096819 4.311102 2.489016
326 1 -4.572616 5.748136 0.000000
327 1 -6.096819 0.000000 0.000000
328 1 -4.572616 1.437034 2.489016
329 1 -4.572612 7.185170 2.489016
330 1 -4.572612 2.874068 0.000000
331 1 -3.048409 4.311102 2.489016
332 1 -1.524206 5.748136 0.000000
333 1 -3.048409 0.000000 0.000000
334 1 -1.524206 1.437034 2.489016
335 1 -1.524203 7.185170 2.489016
336 1 -1.524203 2.874068 0.000000
337 1 -6.096819 4.311102 7.467048
338 1 -4.572616 5.748136 4.978032
339 2 -6.096819 0.000000 4.978032
340 1 -4.572616 1.437034 7.467048
341 1 -4.572612 7.185170 7.467048
342 1 -4.572612 2.874068 4.978032
343 1 -3.048409 4.311102 7.467048
344 1 -1.524206 5.748136 4.978032
345 1 -3.048409 0.000000 4.978032
346 1 -1.524206 1.437034 7.467048
347 1 -1.524203 7.185170 7.467048
348 1 -1.524203 2.874068 4.978032
349 1 -6.096819 4.311102 12.445079
350 1 -4.572616 5.748136 9.956063
351 1 -6.096819 0.000000 9.956063
352 1 -4.572616 1.437034 12.445079
353 1 -4.572612 7.185170 12.445079
354 1 -4.572612 2.874068 9.956063
355 1 -3.048409 4.311102 12.445079
356 1 -1.524206 5.748136 9.956063
357 1 -3.048409 0.000000 9.956063
358 1 -1.524206 1.437034 12.445079
359 1 -1.524203 7.185170 12.445079
360 1 -1.524203 2.874068 9.956063
361 1 -6.096819 12.933306 -7.467048
362 1 -4.572616 14.370340 -9.956063
363 1 -6.096819 8.622204 -9.956063
364 1 -4.572616 10.059238 -7.467048
365 2 -4.572612 15.807374 -7.467048
366 1 -4.572612 11.496272 -9.956063
367 1 -3.048409 12.933306 -7.467048
368 1 -1.524206 14.370340 -9.956063
369 1 -3.048409 8.622204 -9.956063
370 1 -1.524206 10.059238 -7.467048
371 1 -1.524203 15.807374 -7.467048
372 2 -1.524203 11.496272 -9.956063
373 1 -6.096819 12.933306 -2.489016
374 1 -4.572616 14.370340 -4.978032
375 1 -6.096819 8.622204 -4.978032
376 1 -4.572616 10.059238 -2.489016
377 1 -4.572612 15.807374 -2.489016
378 1 -4.572612 11.496272 -4.978032
379 1 -3.048409 12.933306 -2.489016
380 2 -1.524206 14.370340 -4.978032
381 1 -3.048409 8.622204 -4.978032
382 1 -1.524206 10.059238 -2.489016
383 1 -1.524203 15.807374 -2.489016
384 1 -1.524203 11.496272 -4.978032
385 1 -6.096819 12.933306 2.489016
386 1 -4.572616 14.370340 0.000000
387 1 -6.096819 8.622204 0.000000
388 1 -4.572616 10.059238 2.489016
389 2 -4.572612 15.807374 2.489016
390 1 -4.572612 11.496272 0.000000
391 1 -3.048409 12.933306 2.489016
392 1 -1.524206 14.370340 0.000000
393 1 -3.048409 8.622204 0.000000
394 2 -1.524206 10.059238 2.489016
395 1 -1.524203 15.807374 2.489016
396 1 -1.524203 11.496272 0.000000
397 1 -6.096819 12.933306 7.467048
398 1 -4.572616 14.370340 4.978032
399 1 -6.096819 8.622204 4.978032
400 1 -4.572616 10.059238 7.467048
401 1 -4.572612 15.807374 7.467048
402 1 -4.572612 11.496272 4.978032
403 1 -3.048409 12.933306 7.467048
404 1 -1.524206 14.370340 4.978032
405 1 -3.048409 8.622204 4.978032
406 1 -1.524206 10.059238 7.467048
407 1 -1.524203 15.807374 7.467048
408 1 -1.524203 11.496272 4.978032
409 1 -6.096819 12.933306 12.445079
410 1 -4.572616 14.370340 9.956063
411 1 -6.096819 8.622204 9.956063
412 1 -4.572616 10.059238 12.445079
413 1 -4.572612 15.807374 12.445079
414 1 -4.572612 11.496272 9.956063
415 1 -3.048409 12.933306 12.445079
416 1 -1.524206 14.370340 9.956063
417 1 -3.048409 8.622204 9.956063
418 1 -1.524206 10.059238 12.445079
419 1 -1.524203 15.807374 12.445079
420 1 -1.524203 11.496272 9.956063
421 1 -6.096819 21.555510 -7.467048
422 1 -4.572616 22.992544 -9.956063
423 1 -6.096819 17.244408 -9.956063
424 1 -4.572616 18.681442 -7.467048
425 1 -4.572612 24.429578 -7.467048
426 1 -4.572612 20.118476 -9.956063
427 1 -3.048409 21.555510 -7.467048
428 1 -1.524206 22.992544 -9.956063
429 1 -3.048409 17.244408 -9.956063
430 1 -1.524206 18.681442 -7.467048
431 2 -1.524203 24.429578 -7.467048
432 1 -1.524203 20.118476 -9.956063
433 1 -6.096819 21.555510 -2.489016
434 1 -4.572616 22.992544 -4.978032
435 1 -6.096819 17.244408 -4.978032
436 1 -4.572616 18.681442 -2.489016
437 1 -4.572612 24.429578 -2.489016
438 1 -4.572612 20.118476 -4.978032
439 1 -3.048409 21.555510 -2.489016
440 1 -1.524206 22.992544 -4.978032
441 1 -3.048409 17.244408 -4.978032
442 1 -1.524206 18.681442 -2.489016
443 1 -1.524203 24.429578 -2.489016
444 1 -1.524203 20.118476 -4.978032
445 1 -6.096819 21.555510 2.489016
446 1 -4.572616 22.992544 0.000000
447 1 -6.096819 17.244408 0.000000
448 1 -4.572616 18.681442 2.489016
449 1 -4.572612 24.429578 2.489016
450 1 -4.572612 20.118476 0.000000
451 1 -3.048409 21.555510 2.489016
452 1 -1.524206 22.992544 0.000000
453 1 -3.048409 17.244408 0.000000
454 1 -1.524206 18.681442 2.489016
455 1 -1.524203 24.429578 2.489016
456 1 -1.524203 20.118476 0.000000
457 1 -6.096819 21.555510 7.467048
458 1 -4.572616 22.992544 4.978032
459 1 -6.096819 17.244408 4.978032
460 1 -4.572616 18.681442 7.467048
461 1 -4.572612 24.429578 7.467048
462 2 -4.572612 20.118476 4.978032
463 1 -3.048409 21.555510 7.467048
464 1 -1.524206 22.992544 4.978032
465 1 -3.048409 17.244408 4.978032
466 2 -1.524206 18.681442 7.467048
467 1 -1.524203 24.429578 7.467048
468 1 -1.524203 20.118476 4.978032
469 2 -6.096819 21.555510 12.445079
470 1 -4.572616 22.992544 9.956063
471 1 -6.096819 17.244408 9.956063
472 1 -4.572616 18.681442 12.445079
473 1 -4.572612 24.429578 12.445079
474 1 -4.572612 20.118476 9.956063
475 1 -3.048409 21.555510 12.445079
476 1 -1.524206 22.992544 9.956063
477 1 -3.048409 17.244408 9.956063
478 1 -1.524206 18.681442 12.445079
479 1 -1.524203 24.429578 12.445079
480 1 -1.524203 20.118476 9.956063
481 1 0.000000 -4.311102 -7.467048
482 1 1.524203 -2.874068 -9.956063
483 1 0.000000 -8.622204 -9.956063
484 1 1.524203 -7.185170 -7.467048
485 1 1.524206 -1.437034 -7.467048
486 1 1.524206 -5.748136 -9.956063
487 1 3.048409 -4.311102 -7.467048
488 1 4.572612 -2.874068 -9.956063
489 1 3.048409 -8.622204 -9.956063
490 2 4.572612 -7.185170 -7.467048
491 1 4.572616 -1.437034 -7.467048
492 2 4.572616 -5.748136 -9.956063
493 1 0.000000 -4.311102 -2.489016
494 2 1.524203 -2.874068 -4.978032
495 1 0.000000 -8.622204 -4.978032
496 1 1.524203 -7.185170 -2.489016
497 2 1.524206 -1.437034 -2.489016
498 1 1.524206 -5.748136 -4.978032
499 1 3.048409 -4.311102 -2.489016
500 1 4.572612 -2.874068 -4.978032
501 2 3.048409 -8.622204 -4.978032
502 1 4.572612 -7.185170 -2.489016
503 1 4.572616 -1.437034 -2.489016
504 1 4.572616 -5.748136 -4.978032
505 1 0.000000 -4.311102 2.489016
506 1 1.524203 -2.874068 0.000000
507 1 0.000000 -8.622204 0.000000
508 1 1.524203 -7.185170 2.489016
509 1 1.524206 -1.437034 2.489016
510 1 1.524206 -5.748136 0.000000
511 2 3.048409 -4.311102 2.489016
512 1 4.572612 -2.874068 0.000000
513 1 3.048409 -8.622204 0.000000
514 1 4.572612 -7.185170 2.489016
515 1 4.572616 -1.437034 2.489016
516 1 4.572616 -5.748136 0.000000
517 1 0.000000 -4.311102 7.467048
518 1 1.524203 -2.874068 4.978032
519 1 0.000000 -8.622204 4.978032
520 1 1.524203 -7.185170 7.467048
521 1 1.524206 -1.437034 7.467048
522 1 1.524206 -5.748136 4.978032
523 2 3.048409 -4.311102 7.467048
524 1 4.572612 -2.874068 4.978032
525 1 3.048409 -8.622204 4.978032
526 2 4.572612 -7.185170 7.467048
527 1 4.572616 -1.437034 7.467048
528 1 4.572616 -5.748136 4.978032
529 1 0.000000 -4.311102 12.445079
530 1 1.524203 -2.874068 9.956063
531 2 0.000000 -8.622204 9.956063
532 1 1.524203 -7.185170 12.445079
533 1 1.524206 -1.437034 12.445079
534 1 1.524206 -5.748136 9.956063
535 1 3.048409 -4.311102 12.445079
536 2 4.572612 -2.874068 9.956063
537 1 3.048409 -8.622204 9.956063
538 1 4.572612 -7.185170 12.445079
539 1 4.572616 -1.437034 12.445079
540 1 4.572616 -5.748136 9.956063
541 1 0.000000 4.311102 -7.467048
542 1 1.524203 5.748136 -9.956063
543 1 0.000000 0.000000 -9.956063
544 1 1.524203 1.437034 -7.467048
545 1 1.524206 7.185170 -7.467048
546 1 1.524206 2.874068 -9.956063
547 1 3.048409 4.311102 -7.467048
548 1 4.572612 5.748136 -9.956063
549 1 3.048409 0.000000 -9.956063
550 2 4.572612 1.437034 -7.467048
551 1 4.572616 7.185170 -7.467048
552 1 4.572616 2.874068 -9.956063
553 1 0.000000 4.311102 -2.489016
554 1 1.524203 5.748136 -4.978032
555 1 0.000000 0.000000 -4.978032
556 2 1.524203 1.437034 -2.489016
557 1 1.524206 7.185170 -2.489016
558 1 1.524206 2.874068 -4.978032
559 1 3.048409 4.311102 -2.489016
560 1 4.572612 5.748136 -4.978032
561 1 3.048409 0.000000 -4.978032
562 1 4.572612 1.437034 -2.489016
563 1 4.572616 7.185170 -2.489016
564 1 4.572616 2.874068 -4.978032
565 1 0.000000 4.311102 2.489016
566 1 1.524203 5.748136 0.000000
567 1 0.000000 0.000000 0.000000
568 1 1.524203 1.437034 2.489016
569 1 1.524206 7.185170 2.489016
570 2 1.524206 2.874068 0.000000
571 1 3.048409 4.311102 2.489016
572 1 4.572612 5.748136 0.000000
573 1 3.048409 0.000000 0.000000
574 2 4.572612 1.437034 2.489016
575 1 4.572616 7.185170 2.489016
576 1 4.572616 2.874068 0.000000
577 2 0.000000 4.311102 7.467048
578 1 1.524203 5.748136 4.978032
579 1 0.000000 0.000000 4.978032
580 1 1.524203 1.437034 7.467048
581 1 1.524206 7.185170 7.467048
582 2 1.524206 2.874068 4.978032
583 1 3.048409 4.311102 7.467048
584 1 4.572612 5.748136 4.978032
585 1 3.048409 0.000000 4.978032
586 1 4.572612 1.437034 7.467048
587 1 4.572616 7.185170 7.467048
588 1 4.572616 2.874068 4.978032
589 2 0.000000 4.311102 12.445079
590 1 1.524203 5.748136 9.956063
591 1 0.000000 0.000000 9.956063
592 1 1.524203 1.437034 12.445079
593 1 1.524206 7.185170 12.445079
594 2 1.524206 2.874068 9.956063
595 1 3.048409 4.311102 12.445079
596 1 4.572612 5.748136 9.956063
597 1 3.048409 0.000000 9.956063
598 1 4.572612 1.437034 12.445079
599 1 4.572616 7.185170 12.445079
600 1 4.572616 2.874068 9.956063
601 1 0.000000 12.933306 -7.467048
602 2 1.524203 14.370340 -9.956063
603 1 0.000000 8.622204 -9.956063
604 2 1.524203 10.059238 -7.467048
605 1 1.524206 15.807374 -7.467048
606 1 1.524206 11.496272 -9.956063
607 2 3.048409 12.933306 -7.467048
608 1 4.572612 14.370340 -9.956063
609 1 3.048409 8.622204 -9.956063
610 1 4.572612 10.059238 -7.467048
611 1 4.572616 15.807374 -7.467048
612 1 4.572616 11.496272 -9.956063
613 1 0.000000 12.933306 -2.489016
614 1 1.524203 14.370340 -4.978032
615 1 0.000000 8.622204 -4.978032
616 1 1.524203 10.059238 -2.489016
617 1 1.524206 15.807374 -2.489016
618 1 1.524206 11.496272 -4.978032
619 1 3.048409 12.933306 -2.489016
620 1 4.572612 14.370340 -4.978032
621 1 3.048409 8.622204 -4.978032
622 1 4.572612 10.059238 -2.489016
623 1 4.572616 15.807374 -2.489016
624 1 4.572616 11.496272 -4.978032
625 1 0.000000 12.933306 2.489016
626 1 1.524203 14.370340 0.000000
627 1 0.000000 8.622204 0.000000
628 1 1.524203 10.059238 2.489016
629 1 1.524206 15.807374 2.489016
630 1 1.524206 11.496272 0.000000
631 1 3.048409 12.933306 2.489016
632 1 4.572612 14.370340 0.000000
633 1 3.048409 8.622204 0.000000
634 1 4.572612 10.059238 2.489016
635 2 4.572616 15.807374 2.489016
636 1 4.572616 11.496272 0.000000
637 1 0.000000 12.933306 7.467048
638 1 1.524203 14.370340 4.978032
639 1 0.000000 8.622204 4.978032
640 2 1.524203 10.059238 7.467048
641 2 1.524206 15.807374 7.467048
642 1 1.524206 11.496272 4.978032
643 1 3.048409 12.933306 7.467048
644 1 4.572612 14.370340 4.978032
645 1 3.048409 8.622204 4.978032
646 1 4.572612 10.059238 7.467048
647 1 4.572616 15.807374 7.467048
648 1 4.572616 11.496272 4.978032
649 1 0.000000 12.933306 12.445079
650 1 1.524203 14.370340 9.956063
651 1 0.000000 8.622204 9.956063
652 1 1.524203 10.059238 12.445079
653 1 1.524206 15.807374 12.445079
654 1 1.524206 11.496272 9.956063
655 1 3.048409 12.933306 12.445079
656 1 4.572612 14.370340 9.956063
657 1 3.048409 8.622204 9.956063
658 1 4.572612 10.059238 12.445079
659 1 4.572616 15.807374 12.445079
660 1 4.572616 11.496272 9.956063
661 1 0.000000 21.555510 -7.467048
662 1 1.524203 22.992544 -9.956063
663 1 0.000000 17.244408 -9.956063
664 2 1.524203 18.681442 -7.467048
665 2 1.524206 24.429578 -7.467048
666 1 1.524206 20.118476 -9.956063
667 1 3.048409 21.555510 -7.467048
668 1 4.572612 22.992544 -9.956063
669 1 3.048409 17.244408 -9.956063
670 1 4.572612 18.681442 -7.467048
671 1 4.572616 24.429578 -7.467048
672 1 4.572616 20.118476 -9.956063
673 1 0.000000 21.555510 -2.489016
674 2 1.524203 22.992544 -4.978032
675 1 0.000000 17.244408 -4.978032
676 1 1.524203 18.681442 -2.489016
677 1 1.524206 24.429578 -2.489016
678 1 1.524206 20.118476 -4.978032
679 1 3.048409 21.555510 -2.489016
680 2 4.572612 22.992544 -4.978032
681 1 3.048409 17.244408 -4.978032
682 1 4.572612 18.681442 -2.489016
683 1 4.572616 24.429578 -2.489016
684 1 4.572616 20.118476 -4.978032
685 1 0.000000 21.555510 2.489016
686 1 1.524203 22.992544 0.000000
687 1 0.000000 17.244408 0.000000
688 1 1.524203 18.681442 2.489016
689 1 1.524206 24.429578 2.489016
690 1 1.524206 20.118476 0.000000
691 2 3.048409 21.555510 2.489016
692 1 4.572612 22.992544 0.000000
693 1 3.048409 17.244408 0.000000
694 1 4.572612 18.681442 2.489016
695 2 4.572616 24.429578 2.489016
696 1 4.572616 20.118476 0.000000
697 1 0.000000 21.555510 7.467048
698 1 1.524203 22.992544 4.978032
699 2 0.000000 17.244408 4.978032
700 2 1.524203 18.681442 7.467048
701 2 1.524206 24.429578 7.467048
702 1 1.524206 20.118476 4.978032
703 1 3.048409 21.555510 7.467048
704 1 4.572612 22.992544 4.978032
705 1 3.048409 17.244408 4.978032
706 1 4.572612 18.681442 7.467048
707 1 4.572616 24.429578 7.467048
708 1 4.572616 20.118476 4.978032
709 1 0.000000 21.555510 12.445079
710 1 1.524203 22.992544 9.956063
711 1 0.000000 17.244408 9.956063
712 1 1.524203 18.681442 12.445079
713 1 1.524206 24.429578 12.445079
714 1 1.524206 20.118476 9.956063
715 1 3.048409 21.555510 12.445079
716 1 4.572612 22.992544 9.956063
717 1 3.048409 17.244408 9.956063
718 1 4.572612 18.681442 12.445079
719 1 4.572616 24.429578 12.445079
720 1 4.572616 20.118476 9.956063
721 1 6.096819 -4.311102 -7.467048
722 1 7.621022 -2.874068 -9.956063
723 1 6.096819 -8.622204 -9.956063
724 1 7.621022 -7.185170 -7.467048
725 1 7.621025 -1.437034 -7.467048
726 1 7.621025 -5.748136 -9.956063
727 1 9.145228 -4.311102 -7.467048
728 1 10.669431 -2.874068 -9.956063
729 1 9.145228 -8.622204 -9.956063
730 1 10.669431 -7.185170 -7.467048
731 1 10.669435 -1.437034 -7.467048
732 1 10.669435 -5.748136 -9.956063
733 1 6.096819 -4.311102 -2.489016
734 1 7.621022 -2.874068 -4.978032
735 1 6.096819 -8.622204 -4.978032
736 1 7.621022 -7.185170 -2.489016
737 1 7.621025 -1.437034 -2.489016
738 1 7.621025 -5.748136 -4.978032
739 1 9.145228 -4.311102 -2.489016
740 1 10.669431 -2.874068 -4.978032
741 1 9.145228 -8.622204 -4.978032
742 2 10.669431 -7.185170 -2.489016
743 1 10.669435 -1.437034 -2.489016
744 1 10.669435 -5.748136 -4.978032
745 2 6.096819 -4.311102 2.489016
746 1 7.621022 -2.874068 0.000000
747 1 6.096819 -8.622204 0.000000
748 1 7.621022 -7.185170 2.489016
749 1 7.621025 -1.437034 2.489016
750 1 7.621025 -5.748136 0.000000
751 1 9.145228 -4.311102 2.489016
752 1 10.669431 -2.874068 0.000000
753 1 9.145228 -8.622204 0.000000
754 1 10.669431 -7.185170 2.489016
755 1 10.669435 -1.437034 2.489016
756 1 10.669435 -5.748136 0.000000
757 2 6.096819 -4.311102 7.467048
758 1 7.621022 -2.874068 4.978032
759 1 6.096819 -8.622204 4.978032
760 1 7.621022 -7.185170 7.467048
761 1 7.621025 -1.437034 7.467048
762 1 7.621025 -5.748136 4.978032
763 1 9.145228 -4.311102 7.467048
764 2 10.669431 -2.874068 4.978032
765 1 9.145228 -8.622204 4.978032
766 1 10.669431 -7.185170 7.467048
767 2 10.669435 -1.437034 7.467048
768 1 10.669435 -5.748136 4.978032
769 2 6.096819 -4.311102 12.445079
770 1 7.621022 -2.874068 9.956063
771 1 6.096819 -8.622204 9.956063
772 1 7.621022 -7.185170 12.445079
773 2 7.621025 -1.437034 12.445079
774 1 7.621025 -5.748136 9.956063
775 1 9.145228 -4.311102 12.445079
776 1 10.669431 -2.874068 9.956063
777 1 9.145228 -8.622204 9.956063
778 1 10.669431 -7.185170 12.445079
779 1 10.669435 -1.437034 12.445079
780 1 10.669435 -5.748136 9.956063
781 2 6.096819 4.311102 -7.467048
782 1 7.621022 5.748136 -9.956063
783 1 6.096819 0.000000 -9.956063
784 1 7.621022 1.437034 -7.467048
785 1 7.621025 7.185170 -7.467048
786 1 7.621025 2.874068 -9.956063
787 1 9.145228 4.311102 -7.467048
788 1 10.669431 5.748136 -9.956063
789 1 9.145228 0.000000 -9.956063
790 2 10.669431 1.437034 -7.467048
791 2 10.669435 7.185170 -7.467048
792 1 10.669435 2.874068 -9.956063
793 1 6.096819 4.311102 -2.489016
794 1 7.621022 5.748136 -4.978032
795 1 6.096819 0.000000 -4.978032
796 1 7.621022 1.437034 -2.489016
797 1 7.621025 7.185170 -2.489016
798 2 7.621025 2.874068 -4.978032
799 1 9.145228 4.311102 -2.489016
800 1 10.669431 5.748136 -4.978032
801 1 9.145228 0.000000 -4.978032
802 1 10.669431 1.437034 -2.489016
803 1 10.669435 7.185170 -2.489016
804 1 10.669435 2.874068 -4.978032
805 1 6.096819 4.311102 2.489016
806 1 7.621022 5.748136 0.000000
807 1 6.096819 0.000000 0.000000
808 1 7.621022 1.437034 2.489016
809 1 7.621025 7.185170 2.489016
810 1 7.621025 2.874068 0.000000
811 1 9.145228 4.311102 2.489016
812 1 10.669431 5.748136 0.000000
813 1 9.145228 0.000000 0.000000
814 1 10.669431 1.437034 2.489016
815 1 10.669435 7.185170 2.489016
816 1 10.669435 2.874068 0.000000
817 1 6.096819 4.311102 7.467048
818 1 7.621022 5.748136 4.978032
819 1 6.096819 0.000000 4.978032
820 1 7.621022 1.437034 7.467048
821 1 7.621025 7.185170 7.467048
822 1 7.621025 2.874068 4.978032
823 1 9.145228 4.311102 7.467048
824 1 10.669431 5.748136 4.978032
825 1 9.145228 0.000000 4.978032
826 1 10.669431 1.437034 7.467048
827 1 10.669435 7.185170 7.467048
828 1 10.669435 2.874068 4.978032
829 2 6.096819 4.311102 12.445079
830 1 7.621022 5.748136 9.956063
831 1 6.096819 0.000000 9.956063
832 2 7.621022 1.437034 12.445079